2
Lattice="1.605496 -2.736485 0.005179 1.624685 2.769721 -0.025893 -0.006396 -0.016618 5.147532" Properties=species:S:1:pos:R:3:forces:R:3 energy=-3380.645056939 virial="-0.13624974246689664 -0.08290001881572875 0.03474918835044822 -0.08290001881572875 0.08362598395203362 0.039652381451299935 0.03474918835044822 0.039652381451299935 0.07381445514015567" config_type=hcp_Mg_geomopti_randshear_pm_0.01_product_symm_k0p012 pbc="T T T"
Mg       0.00000000       0.00000000       0.00000000       0.01012000       0.01334000       0.00150000
Mg       1.61509067       0.92601184       2.55823032      -0.01012000      -0.01334000      -0.00150000
2
Lattice="1.610293 -2.761412 -0.005179 1.616689 2.772491 0.010357 0.001599 0.008309 5.157889" Properties=species:S:1:pos:R:3:forces:R:3 energy=-3380.645950698 virial="-0.16378338817467458 -0.024785291447798206 -0.011266720984249513 -0.024785291447798206 -0.018789461949623373 -0.021463856582684335 -0.011266720984249513 -0.021463856582684335 0.009459837421972943" config_type=hcp_Mg_geomopti_randshear_pm_0.01_product_symm_k0p012 pbc="T T T"
Mg       0.00000000       0.00000000       0.00000000       0.00345000       0.00795000      -0.00032000
Mg       1.61535650       0.93201301       2.58412284      -0.00345000      -0.00795000       0.00032000
2
Lattice="1.61509 -2.78634 -0.020714 1.61509 2.78634 0.005179 -0.004797 0.013849 5.230389" Properties=species:S:1:pos:R:3:forces:R:3 energy=-3380.643072684 virial="-0.32464564507111493 -0.0005000768269229716 0.022811083790727823 -0.0005000768269229716 -0.24926949392208667 -0.030048388374021965 0.022811083790727823 -0.030048388374021965 -0.2547506532677083" config_type=hcp_Mg_geomopti_randshear_pm_0.01_product_symm_k0p012 pbc="T T T"
Mg       0.00000000       0.00000000       0.00000000       0.00035000       0.00302000      -0.00017000
Mg       1.61269150       0.93570636       2.61174251      -0.00035000      -0.00302000       0.00017000
2
Lattice="1.610293 -2.761412 -0.010357 1.610293 2.761412 -0.010357 -0.006396 0.0 5.147532" Properties=species:S:1:pos:R:3:forces:R:3 energy=-3380.646081842 virial="-0.10588328823668032 0.0 0.0383925674257202 0.0 0.04455227039490688 0.0 0.0383925674257202 0.0 0.0723746526623521" config_type=hcp_Mg_geomopti_randshear_pm_0.01_product_symm_k0p012 pbc="T T T"
Mg       0.00000000       0.00000000       0.00000000       0.00000000       0.00791000      -0.00000000
Mg       1.60709500       0.92047251       2.56340900      -0.00000000      -0.00791000       0.00000000
2
Lattice="1.594302 -2.766952 0.005179 1.610293 2.794649 -0.03625 -0.009595 -0.022158 5.157889" Properties=species:S:1:pos:R:3:forces:R:3 energy=-3380.645910622 virial="-0.06657824384361843 -0.06313131685766063 0.0626275881802853 -0.06313131685766063 -0.07196378039774391 0.05994543377626521 0.0626275881802853 0.05994543377626521 0.027424239912163136" config_type=hcp_Mg_geomopti_randshear_pm_0.01_product_symm_k0p012 pbc="T T T"
Mg       0.00000000       0.00000000       0.00000000       0.00783000      -0.00172000       0.00062000
Mg       1.60016517       0.92970485       2.55650415      -0.00783000       0.00172000      -0.00062000
2
Lattice="1.611892 -2.791879 -0.031072 1.595901 2.764182 -0.015536 -0.014392 0.008309 5.157889" Properties=species:S:1:pos:R:3:forces:R:3 energy=-3380.645790046 virial="-0.07791975622065406 0.06542887738638523 0.08783575210206257 0.06542887738638523 -0.05761357979639785 -0.027446198337880687 0.08783575210206257 -0.027446198337880687 0.026015612187489153" config_type=hcp_Mg_geomopti_randshear_pm_0.01_product_symm_k0p012 pbc="T T T"
Mg       0.00000000       0.00000000       0.00000000      -0.00847000      -0.00157000      -0.00114000
Mg       1.59403533       0.91631802       2.55822984       0.00847000       0.00157000       0.00114000
2
Lattice="1.592703 -2.791879 -0.046607 1.599099 2.802958 -0.020714 -0.020788 0.013849 5.137174" Properties=species:S:1:pos:R:3:forces:R:3 energy=-3380.644417215 virial="0.0033913404649769806 -0.02071760643806694 0.13423261631426908 -0.02071760643806694 -0.13307411586168513 -0.03663174423408831 0.13423261631426908 -0.03663174423408831 0.09454961032478364" config_type=hcp_Mg_geomopti_randshear_pm_0.01_product_symm_k0p012 pbc="T T T"
Mg       0.00000000       0.00000000       0.00000000       0.00577000      -0.01247000       0.00130000
Mg       1.58657300       0.94493870       2.53924201      -0.00577000       0.01247000      -0.00130000
2
Lattice="1.581509 -2.744794 0.015536 1.581509 2.744794 -0.005179 0.003198 -0.011079 5.230389" Properties=species:S:1:pos:R:3:forces:R:3 energy=-3380.645633549 virial="0.18987334168474165 0.00012470485291324294 -0.012930476146502006 0.00012470485291324294 0.16571092617244004 0.020401997356726802 -0.012930476146502006 0.020401997356726802 -0.0753911690890618" config_type=hcp_Mg_geomopti_randshear_pm_0.01_product_symm_k0p012 pbc="T T T"
Mg       0.00000000       0.00000000       0.00000000       0.00019000      -0.00154000      -0.00007000
Mg       1.58310800       0.90939366       2.61692049      -0.00019000       0.00154000       0.00007000
2
Lattice="1.611892 -2.802958 -0.020714 1.605496 2.791879 0.020714 0.0 0.022158 5.157889" Properties=species:S:1:pos:R:3:forces:R:3 energy=-3380.645004422 virial="-0.18271868510583336 0.022390740188087024 0.0006681381342114763 0.022390740188087024 -0.19453858761457454 -0.05626499590580877 0.0006681381342114763 -0.05626499590580877 -0.03801346707303187" config_type=hcp_Mg_geomopti_randshear_pm_0.01_product_symm_k0p012 pbc="T T T"
Mg       0.00000000       0.00000000       0.00000000      -0.00358000      -0.00261000       0.00024000
Mg       1.60762800       0.93801420       2.58584918       0.00358000       0.00261000      -0.00024000
2
Lattice="1.589505 -2.742024 -0.031072 1.595901 2.753103 0.0 -0.009595 0.016618 5.178603" Properties=species:S:1:pos:R:3:forces:R:3 energy=-3380.646167857 virial="0.09686378540908532 -0.029725819527627505 0.06426054366461198 -0.029725819527627505 0.15690267658016532 -0.045299032789917454 0.06426054366461198 -0.045299032789917454 0.07180118896882544" config_type=hcp_Mg_geomopti_randshear_pm_0.01_product_symm_k0p012 pbc="T T T"
Mg       0.00000000       0.00000000       0.00000000       0.00473000       0.00304000       0.00009000
Mg       1.58897150       0.92970483       2.57894418      -0.00473000      -0.00304000      -0.00009000
2
Lattice="1.603897 -2.772491 -0.005179 1.587906 2.744794 -0.025893 -0.009595 -0.011079 5.168246" Properties=species:S:1:pos:R:3:forces:R:3 energy=-3380.646382174 virial="0.049467539242690324 0.07802728101305072 0.05931549101278565 0.07802728101305072 0.07959845449151202 0.030316093323289668 0.05931549101278565 0.030316093323289668 0.0694917646449745" config_type=hcp_Mg_geomopti_randshear_pm_0.01_product_symm_k0p012 pbc="T T T"
Mg       0.00000000       0.00000000       0.00000000      -0.01000000       0.00106000      -0.00076000
Mg       1.58843883       0.90016134       2.56513466       0.01000000      -0.00106000       0.00076000
2
Lattice="1.602298 -2.775261 -0.005179 1.611892 2.791879 0.005179 0.0 0.005539 5.209675" Properties=species:S:1:pos:R:3:forces:R:3 energy=-3380.645729726 virial="-0.1985209359281814 -0.039517592976833577 -0.001364110141995411 -0.039517592976833577 -0.1819898643332257 -0.01136903910197924 -0.001364110141995411 -0.01136903910197924 -0.15939491732778752" config_type=hcp_Mg_geomopti_randshear_pm_0.01_product_symm_k0p012 pbc="T T T"
Mg       0.00000000       0.00000000       0.00000000       0.00502000       0.00017000       0.00001000
Mg       1.60869400       0.93893702       2.60656384      -0.00502000      -0.00017000      -0.00001000
2
Lattice="1.599099 -2.7808 0.010357 1.611892 2.802958 -0.031072 -0.006396 -0.022158 5.230389" Properties=species:S:1:pos:R:3:forces:R:3 energy=-3380.643956125 virial="-0.21755059934647222 -0.04789013844672814 0.03794472906126632 -0.04789013844672814 -0.25337397273214013 0.05163067758943737 0.03794472906126632 0.05163067758943737 -0.2415369309715827" config_type=hcp_Mg_geomopti_randshear_pm_0.01_product_symm_k0p012 pbc="T T T"
Mg       0.00000000       0.00000000       0.00000000       0.00595000      -0.00249000       0.00012000
Mg       1.60442967       0.93062819       2.59793215      -0.00595000       0.00249000      -0.00012000
2
Lattice="1.5975 -2.739254 0.031072 1.623086 2.78357 0.005179 0.011194 -0.013849 5.157889" Properties=species:S:1:pos:R:3:forces:R:3 energy=-3380.645057857 virial="-0.12136639836935144 -0.11235101774086313 -0.06551380799723483 -0.11235101774086313 0.03542799535369522 0.035887467153159325 -0.06551380799723483 0.035887467153159325 0.04585099145755113" config_type=hcp_Mg_geomopti_randshear_pm_0.01_product_symm_k0p012 pbc="T T T"
Mg       0.00000000       0.00000000       0.00000000       0.01545000       0.00725000      -0.00099000
Mg       1.62015434       0.93570601       2.59275449      -0.01545000      -0.00725000       0.00099000
2
Lattice="1.595901 -2.764182 -0.041429 1.602298 2.775261 -0.015536 -0.01759 0.013849 5.147532" Properties=species:S:1:pos:R:3:forces:R:3 energy=-3380.645782817 virial="0.01885820846029229 -0.028460049645460436 0.10944152458880228 -0.028460049645460436 0.016548598695945518 -0.04053313912949346 0.10944152458880228 -0.04053313912949346 0.10516094917291956" config_type=hcp_Mg_geomopti_randshear_pm_0.01_product_symm_k0p012 pbc="T T T"
Mg       0.00000000       0.00000000       0.00000000       0.00536000      -0.00201000       0.00061000
Mg       1.59137067       0.93570635       2.54959901      -0.00536000       0.00201000      -0.00061000
2
Lattice="1.616689 -2.794649 0.005179 1.594302 2.755873 0.025893 0.009595 0.011079 5.18896" Properties=species:S:1:pos:R:3:forces:R:3 energy=-3380.645655926 virial="-0.1367605029711358 0.09607891910656699 -0.056818638103894974 0.09607891910656699 -0.08216458053065785 -0.02865808312645612 -0.056818638103894974 -0.02865808312645612 -0.07401394972283036" config_type=hcp_Mg_geomopti_randshear_pm_0.01_product_symm_k0p012 pbc="T T T"
Mg       0.00000000       0.00000000       0.00000000      -0.01291000       0.00080000       0.00099000
Mg       1.60656183       0.91124035       2.61346834       0.01291000      -0.00080000      -0.00099000
2
Lattice="1.599099 -2.802958 0.010357 1.586307 2.7808 0.005179 0.004797 -0.00277 5.147532" Properties=species:S:1:pos:R:3:forces:R:3 energy=-3380.646348285 virial="0.040196546235973525 0.048093281103726564 -0.03765277930176681 0.048093281103726564 -0.1066350641749928 0.010674792365370913 -0.03765277930176681 0.010674792365370913 0.07278036348228022" config_type=hcp_Mg_geomopti_randshear_pm_0.01_product_symm_k0p012 pbc="T T T"
Mg       0.00000000       0.00000000       0.00000000      -0.00773000      -0.00984000       0.00020000
Mg       1.59296950       0.91816419       2.58067100       0.00773000       0.00984000      -0.00020000
2
Lattice="1.600698 -2.789109 -0.020714 1.600698 2.789109 -0.020714 -0.012793 0.0 5.230389" Properties=species:S:1:pos:R:3:forces:R:3 energy=-3380.645008461 virial="-0.1515477845434344 -2.9148401198541765e-07 0.06753480518893738 -2.9148401198541765e-07 -0.2219644921588716 -0.0 0.06753480518893738 -0.0 -0.2216945779637731" config_type=hcp_Mg_geomopti_randshear_pm_0.01_product_symm_k0p012 pbc="T T T"
Mg       0.00000000       0.00000000       0.00000000       0.00000000      -0.00519000      -0.00000000
Mg       1.59430150       0.92970486       2.59448050      -0.00000000       0.00519000       0.00000000
2
Lattice="1.619888 -2.789109 0.0 1.603897 2.761412 -0.046607 -0.014392 -0.024927 5.178603" Properties=species:S:1:pos:R:3:forces:R:3 energy=-3380.644751734 virial="-0.19569052128431172 0.06857440882218217 0.08809014133117639 0.06857440882218217 -0.09306413316173244 0.06769538689654037 0.08809014133117639 0.06769538689654037 -0.05926978824809411" config_type=hcp_Mg_geomopti_randshear_pm_0.01_product_symm_k0p012 pbc="T T T"
Mg       0.00000000       0.00000000       0.00000000      -0.01079000       0.00388000      -0.00068000
Mg       1.60203133       0.89877668       2.55823015       0.01079000      -0.00388000       0.00068000
2
Lattice="1.5975 -2.772491 0.0 1.600698 2.778031 -0.025893 -0.007995 -0.013849 5.137174" Properties=species:S:1:pos:R:3:forces:R:3 energy=-3380.646592073 virial="0.020990975286410387 -0.017556890433087256 0.05564913587826897 -0.017556890433087256 -0.009578270813648513 0.0425266458913971 0.05564913587826897 0.0425266458913971 0.11933238541313569" config_type=hcp_Mg_geomopti_randshear_pm_0.01_product_symm_k0p012 pbc="T T T"
Mg       0.00000000       0.00000000       0.00000000       0.00118000      -0.00186000       0.00006000
Mg       1.59563450       0.92093435       2.55132499      -0.00118000       0.00186000      -0.00006000
2
Lattice="1.592703 -2.758643 -0.015536 1.595901 2.764182 -0.025893 -0.012793 -0.005539 5.18896" Properties=species:S:1:pos:R:3:forces:R:3 energy=-3380.646740171 virial="0.03482785528544846 -0.0157416145684907 0.08051455307525586 -0.0157416145684907 0.041806258483102654 0.01637352620162251 0.08051455307525586 0.01637352620162251 -0.0033928179652537426" config_type=hcp_Mg_geomopti_randshear_pm_0.01_product_symm_k0p012 pbc="T T T"
Mg       0.00000000       0.00000000       0.00000000       0.00137000      -0.00106000       0.00022000
Mg       1.58843850       0.92047267       2.57203933      -0.00137000       0.00106000      -0.00022000
2
Lattice="1.599099 -2.825116 -0.031072 1.573514 2.7808 0.031072 0.0 0.033237 5.230389" Properties=species:S:1:pos:R:3:forces:R:3 energy=-3380.643454899 virial="-0.00746191681906132 0.10395857637983251 -0.001973241161394906 0.10395857637983251 -0.24130086355284364 -0.07506443914406713 -0.001973241161394906 -0.07506443914406713 -0.2011634896084183" config_type=hcp_Mg_geomopti_randshear_pm_0.01_product_symm_k0p012 pbc="T T T"
Mg       0.00000000       0.00000000       0.00000000      -0.01457000      -0.01289000       0.00193000
Mg       1.58204232       0.92878170       2.62555185       0.01457000       0.01289000      -0.00193000
2
Lattice="1.608694 -2.764182 -0.020714 1.611892 2.769721 0.005179 -0.004797 0.013849 5.209675" Properties=species:S:1:pos:R:3:forces:R:3 energy=-3380.645774494 virial="-0.20313382650920336 -0.010821719421481742 0.02454561142852526 -0.010821719421481742 -0.08276813089713667 -0.03059769597271743 0.02454561142852526 -0.03059769597271743 -0.12694831909437423" config_type=hcp_Mg_geomopti_randshear_pm_0.01_product_symm_k0p012 pbc="T T T"
Mg       0.00000000       0.00000000       0.00000000       0.00203000       0.00624000      -0.00027000
Mg       1.60842750       0.93201301       2.60138551      -0.00203000      -0.00624000       0.00027000
2
Lattice="1.616689 -2.794649 0.0 1.591104 2.750333 0.010357 0.003198 0.005539 5.157889" Properties=species:S:1:pos:R:3:forces:R:3 energy=-3380.646030526 virial="-0.07977000790941706 0.10967202291884516 -0.01930664827940566 0.10967202291884516 -0.012818993777283507 -0.015904358614200257 -0.01930664827940566 -0.015904358614200257 0.04260105259605855" config_type=hcp_Mg_geomopti_randshear_pm_0.01_product_symm_k0p012 pbc="T T T"
Mg       0.00000000       0.00000000       0.00000000      -0.01483000       0.00120000       0.00039000
Mg       1.60123132       0.90477701       2.58584917       0.01483000      -0.00120000      -0.00039000
2
Lattice="1.605496 -2.7808 0.0 1.583108 2.742024 0.031072 0.009595 0.016618 5.147532" Properties=species:S:1:pos:R:3:forces:R:3 energy=-3380.645420014 virial="0.07522891335749031 0.10191265992641516 -0.061418187074204635 0.10191265992641516 0.10550111793128494 -0.047867698956178324 -0.061418187074204635 -0.047867698956178324 0.146890018042789" config_type=hcp_Mg_geomopti_randshear_pm_0.01_product_symm_k0p012 pbc="T T T"
Mg       0.00000000       0.00000000       0.00000000      -0.01469000      -0.00058000       0.00115000
Mg       1.59536816       0.90939351       2.59448068       0.01469000       0.00058000      -0.00115000
2
Lattice="1.57991 -2.769721 0.0 1.599099 2.802958 0.0 0.0 0.0 5.199318" Properties=species:S:1:pos:R:3:forces:R:3 energy=-3380.646317411 virial="0.02936508615509074 -0.07786213200598359 -0.0 -0.07786213200598359 -0.12133991282971152 0.0 -0.0 0.0 -0.08184805275570846" config_type=hcp_Mg_geomopti_randshear_pm_0.01_product_symm_k0p012 pbc="T T T"
Mg       0.00000000       0.00000000       0.00000000       0.01110000      -0.00922000       0.00000000
Mg       1.59270267       0.94540019       2.59965900      -0.01110000       0.00922000      -0.00000000
2
Lattice="1.586307 -2.7808 -0.020714 1.599099 2.802958 -0.020714 -0.012793 0.0 5.199318" Properties=species:S:1:pos:R:3:forces:R:3 energy=-3380.645654829 virial="-0.02364680754554256 -0.04885602436679378 0.08056970049081513 -0.04885602436679378 -0.17250828044534333 0.003034490863331463 0.08056970049081513 0.003034490863331463 -0.09701251417793229" config_type=hcp_Mg_geomopti_randshear_pm_0.01_product_symm_k0p012 pbc="T T T"
Mg       0.00000000       0.00000000       0.00000000       0.00736000      -0.01011000       0.00082000
Mg       1.58843850       0.94170719       2.57894500      -0.00736000       0.01011000      -0.00082000
2
Lattice="1.584708 -2.78357 0.025893 1.575113 2.766952 0.005179 0.009595 -0.011079 5.168246" Properties=species:S:1:pos:R:3:forces:R:3 energy=-3380.645603123 virial="0.21088656118084742 0.052598734160203095 -0.05958698747525794 0.052598734160203095 0.01903984337730586 0.03381403769607997 -0.05958698747525794 0.03381403769607997 0.09998279720674354" config_type=hcp_Mg_geomopti_randshear_pm_0.01_product_symm_k0p012 pbc="T T T"
Mg       0.00000000       0.00000000       0.00000000      -0.00535000      -0.01191000      -0.00003000
Mg       1.58310883       0.91124035       2.59620666       0.00535000       0.01191000       0.00003000
2
Lattice="1.592703 -2.736485 -0.005179 1.602298 2.753103 -0.031072 -0.011194 -0.013849 5.168246" Properties=species:S:1:pos:R:3:forces:R:3 energy=-3380.645894734 virial="0.05973399805829261 -0.045203594406885594 0.0716257503331286 -0.045203594406885594 0.17156778283794613 0.0358710058331472 0.0716257503331286 0.0358710058331472 0.09655998749428113" config_type=hcp_Mg_geomopti_randshear_pm_0.01_product_symm_k0p012 pbc="T T T"
Mg       0.00000000       0.00000000       0.00000000       0.00452000       0.00602000       0.00096000
Mg       1.59350267       0.91631766       2.56168199      -0.00452000      -0.00602000      -0.00096000
2
Lattice="1.591104 -2.794649 -0.015536 1.575113 2.766952 -0.020714 -0.011194 -0.00277 5.209675" Properties=species:S:1:pos:R:3:forces:R:3 energy=-3380.646001209 virial="0.10484524976114237 0.07579169162904398 0.06218171983799597 0.07579169162904398 -0.07724799096016997 0.0032956394534937156 0.06218171983799597 0.0032956394534937156 -0.06795281050364743" config_type=hcp_Mg_geomopti_randshear_pm_0.01_product_symm_k0p012 pbc="T T T"
Mg       0.00000000       0.00000000       0.00000000      -0.00974000      -0.01163000      -0.00100000
Mg       1.57484633       0.91170185       2.58584950       0.00974000       0.01163000       0.00100000
2
Lattice="1.589505 -2.730945 0.031072 1.61509 2.775261 -0.015536 0.004797 -0.024927 5.126817" Properties=species:S:1:pos:R:3:forces:R:3 energy=-3380.644275882 virial="0.028366366674604508 -0.1158205562820165 -0.031052856854049137 -0.1158205562820165 0.16152052907922237 0.07038254238851184 -0.031052856854049137 0.07038254238851184 0.20872535415620336" config_type=hcp_Mg_geomopti_randshear_pm_0.01_product_symm_k0p012 pbc="T T T"
Mg       0.00000000       0.00000000       0.00000000       0.01630000       0.00724000       0.00007000
Mg       1.60896018       0.92739734       2.56340848      -0.01630000      -0.00724000      -0.00007000
2
Lattice="1.608694 -2.753103 -0.005179 1.621487 2.775261 0.025893 0.006396 0.016618 5.230389" Properties=species:S:1:pos:R:3:forces:R:3 energy=-3380.64421255 virial="-0.2697339504368444 -0.044419687215707306 -0.03509544990112449 -0.044419687215707306 -0.10785277388452076 -0.03690287708423571 -0.03509544990112449 -0.03690287708423571 -0.20691499843579664" config_type=hcp_Mg_geomopti_randshear_pm_0.01_product_symm_k0p012 pbc="T T T"
Mg       0.00000000       0.00000000       0.00000000       0.00581000       0.00890000      -0.00094000
Mg       1.62042067       0.94078384       2.63073018      -0.00581000      -0.00890000       0.00094000
2
Lattice="1.586307 -2.736485 0.005179 1.595901 2.753103 0.0 0.001599 -0.00277 5.137174" Properties=species:S:1:pos:R:3:forces:R:3 energy=-3380.645118962 virial="0.17319507519522412 -0.05476363830753381 -0.011032320111323688 -0.05476363830753381 0.23679818040483971 0.007092185781716576 -0.011032320111323688 0.007092185781716576 0.22768033596891546" config_type=hcp_Mg_geomopti_randshear_pm_0.01_product_symm_k0p012 pbc="T T T"
Mg       0.00000000       0.00000000       0.00000000       0.00608000       0.00352000      -0.00005000
Mg       1.59350250       0.92185716       2.57031333      -0.00608000      -0.00352000       0.00005000
2
Lattice="1.57991 -2.758643 0.005179 1.589505 2.775261 0.025893 0.009595 0.011079 5.220032" Properties=species:S:1:pos:R:3:forces:R:3 energy=-3380.646411774 virial="0.1061625388571323 -0.044471341585618676 -0.04881473375646611 -0.044471341585618676 0.005713094977520421 -0.02941689632353983 -0.04881473375646611 -0.02941689632353983 -0.09179837352432378" config_type=hcp_Mg_geomopti_randshear_pm_0.01_product_symm_k0p012 pbc="T T T"
Mg       0.00000000       0.00000000       0.00000000       0.00508000      -0.00666000      -0.00018000
Mg       1.59110417       0.93616768       2.62900434      -0.00508000       0.00666000       0.00018000
2
Lattice="1.611892 -2.791879 -0.015536 1.61509 2.797419 -0.005179 -0.006396 0.005539 5.147532" Properties=species:S:1:pos:R:3:forces:R:3 energy=-3380.644880413 virial="-0.2137234502008428 -0.011070656836294133 0.035831505394823805 -0.011070656836294133 -0.18589628843603972 -0.014633873297670909 0.035831505394823805 -0.014633873297670909 -0.01649573937189494" config_type=hcp_Mg_geomopti_randshear_pm_0.01_product_symm_k0p012 pbc="T T T"
Mg       0.00000000       0.00000000       0.00000000       0.00200000      -0.00046000       0.00010000
Mg       1.61082600       0.93709103       2.56513467      -0.00200000       0.00046000      -0.00010000
2
Lattice="1.586307 -2.769721 -0.005179 1.602298 2.797419 -0.041429 -0.014392 -0.019388 5.126817" Properties=species:S:1:pos:R:3:forces:R:3 energy=-3380.644933856 virial="0.06599017347361466 -0.06539408116301765 0.09078125224725771 -0.06539408116301765 -0.021659819213546514 0.05387407898132741 0.09078125224725771 0.05387407898132741 0.16290416199878682" config_type=hcp_Mg_geomopti_randshear_pm_0.01_product_symm_k0p012 pbc="T T T"
Mg       0.00000000       0.00000000       0.00000000       0.00817000      -0.00777000       0.00070000
Mg       1.58977167       0.93201352       2.53406282      -0.00817000       0.00777000      -0.00070000
2
Lattice="1.589505 -2.753103 0.0 1.599099 2.769721 0.015536 0.004797 0.008309 5.168246" Properties=species:S:1:pos:R:3:forces:R:3 energy=-3380.646982877 virial="0.06397495134367424 -0.05197460652107483 -0.03319571847970765 -0.05197460652107483 0.062167415558698196 -0.02789240166998537 -0.03319571847970765 -0.02789240166998537 0.06648175694364257" config_type=hcp_Mg_geomopti_randshear_pm_0.01_product_symm_k0p012 pbc="T T T"
Mg       0.00000000       0.00000000       0.00000000       0.00541000      -0.00010000      -0.00025000
Mg       1.59829950       0.93293601       2.59448034      -0.00541000       0.00010000       0.00025000
2
Lattice="1.602298 -2.764182 -0.025893 1.602298 2.764182 0.0 -0.007995 0.013849 5.199318" Properties=species:S:1:pos:R:3:forces:R:3 energy=-3380.646846505 virial="-0.07756370563302976 0.001962721182299828 0.0530273912395399 0.001962721182299828 -0.021499385674831728 -0.03679469822758127 0.0530273912395399 -0.03679469822758127 -0.07708624812222131" config_type=hcp_Mg_geomopti_randshear_pm_0.01_product_symm_k0p012 pbc="T T T"
Mg       0.00000000       0.00000000       0.00000000       0.00068000       0.00291000      -0.00019000
Mg       1.59830050       0.92832034       2.59102801      -0.00068000      -0.00291000       0.00019000
2
Lattice="1.599099 -2.802958 0.010357 1.602298 2.808497 -0.020714 -0.003198 -0.016618 5.209675" Properties=species:S:1:pos:R:3:forces:R:3 energy=-3380.64432374 virial="-0.18673534313976856 -0.008336057638094044 0.015240715287249018 -0.008336057638094044 -0.2922188036182743 0.03795999170830212 0.015240715287249018 0.03795999170830212 -0.1752339084194216" config_type=hcp_Mg_geomopti_randshear_pm_0.01_product_symm_k0p012 pbc="T T T"
Mg       0.00000000       0.00000000       0.00000000       0.00147000      -0.00831000      -0.00052000
Mg       1.59963267       0.92970487       2.59448049      -0.00147000       0.00831000       0.00052000
2
Lattice="1.61509 -2.797419 0.015536 1.592703 2.758643 -0.015536 0.0 -0.016618 5.230389" Properties=species:S:1:pos:R:3:forces:R:3 energy=-3380.644974107 virial="-0.17135652025684894 0.08972113648571278 -0.0009125415982741012 0.08972113648571278 -0.14994248225386847 0.03838870803297364 -0.0009125415982741012 0.03838870803297364 -0.2094066250318082" config_type=hcp_Mg_geomopti_randshear_pm_0.01_product_symm_k0p012 pbc="T T T"
Mg       0.00000000       0.00000000       0.00000000      -0.01188000       0.00029000      -0.00001000
Mg       1.60016533       0.89831519       2.61001582       0.01188000      -0.00029000       0.00001000
2
Lattice="1.57991 -2.747564 0.015536 1.592703 2.769721 -0.020714 -0.001599 -0.019388 5.230389" Properties=species:S:1:pos:R:3:forces:R:3 energy=-3380.646226152 virial="0.09630497339968547 -0.056013668215967635 0.009570556366605545 -0.056013668215967635 0.04724851510918241 0.04355748825085722 0.009570556366605545 0.04355748825085722 -0.1193342496529018" config_type=hcp_Mg_geomopti_randshear_pm_0.01_product_symm_k0p012 pbc="T T T"
Mg       0.00000000       0.00000000       0.00000000       0.00717000      -0.00278000      -0.00012000
Mg       1.58763917       0.92093384       2.60656382      -0.00717000       0.00278000       0.00012000
2
Lattice="1.607095 -2.789109 0.0 1.600698 2.778031 0.03625 0.011194 0.019388 5.199318" Properties=species:S:1:pos:R:3:forces:R:3 energy=-3380.64565909 virial="-0.139364520619952 0.02602900092487931 -0.06886951502044669 0.02602900092487931 -0.15518509300982358 -0.04874182721921924 -0.06886951502044669 -0.04874182721921924 -0.12289578023982121" config_type=hcp_Mg_geomopti_randshear_pm_0.01_product_symm_k0p012 pbc="T T T"
Mg       0.00000000       0.00000000       0.00000000      -0.00478000      -0.00184000       0.00044000
Mg       1.60842733       0.93201352       2.62382568       0.00478000       0.00184000      -0.00044000
2
Lattice="1.5975 -2.772491 -0.010357 1.5975 2.772491 -0.015536 -0.007995 -0.00277 5.209675" Properties=species:S:1:pos:R:3:forces:R:3 energy=-3380.647064778 virial="-0.053925580808024946 -0.0005671283368549863 0.039024708599362745 -0.0005671283368549863 -0.07570544035498457 0.0061174396884017546 0.039024708599362745 0.0061174396884017546 -0.10778664320698157" config_type=hcp_Mg_geomopti_randshear_pm_0.01_product_symm_k0p012 pbc="T T T"
Mg       0.00000000       0.00000000       0.00000000      -0.00011000      -0.00190000      -0.00002000
Mg       1.59350250       0.92278051       2.59102783       0.00011000       0.00190000       0.00002000
2
Lattice="1.607095 -2.778031 0.010357 1.591104 2.750333 0.005179 0.004797 -0.00277 5.126817" Properties=species:S:1:pos:R:3:forces:R:3 energy=-3380.645880872 virial="0.03199471755203847 0.07181152899691075 -0.031722307729284284 0.07181152899691075 0.09957922683823696 0.009813825525245309 -0.031722307729284284 0.009813825525245309 0.1889794349205166" config_type=hcp_Mg_geomopti_randshear_pm_0.01_product_symm_k0p012 pbc="T T T"
Mg       0.00000000       0.00000000       0.00000000      -0.00969000       0.00138000       0.00042000
Mg       1.59883283       0.90616184       2.57031350       0.00969000      -0.00138000      -0.00042000
2
Lattice="1.583108 -2.764182 0.020714 1.595901 2.78634 0.03625 0.01759 0.008309 5.126817" Properties=species:S:1:pos:R:3:forces:R:3 energy=-3380.64457658 virial="0.15388938423086088 -0.05899435575573102 -0.11324254863142763 -0.05899435575573102 0.0366741507596828 -0.024450939393151613 -0.11324254863142763 -0.024450939393151613 0.20587896477067724" config_type=hcp_Mg_geomopti_randshear_pm_0.01_product_symm_k0p012 pbc="T T T"
Mg       0.00000000       0.00000000       0.00000000       0.00710000      -0.00908000      -0.00104000
Mg       1.60043167       0.94032235       2.59447984      -0.00710000       0.00908000       0.00104000
2
Lattice="1.589505 -2.764182 -0.020714 1.608694 2.797419 -0.005179 -0.007995 0.008309 5.230389" Properties=species:S:1:pos:R:3:forces:R:3 energy=-3380.645346141 virial="-0.11713602441422899 -0.07666869870203766 0.04635500239717534 -0.07666869870203766 -0.15223592574022773 -0.017707158598153167 0.04635500239717534 -0.017707158598153167 -0.20186514991517673" config_type=hcp_Mg_geomopti_randshear_pm_0.01_product_symm_k0p012 pbc="T T T"
Mg       0.00000000       0.00000000       0.00000000       0.01069000      -0.00317000       0.00081000
Mg       1.59830017       0.94770835       2.60483717      -0.01069000       0.00317000      -0.00081000
2
Lattice="1.616689 -2.794649 0.025893 1.587906 2.744794 0.046607 0.022387 0.011079 5.157889" Properties=species:S:1:pos:R:3:forces:R:3 energy=-3380.643929393 virial="-0.0432934705527895 0.12477491211204536 -0.14181209922773708 0.12477491211204536 0.012135096202180515 -0.03101495983702529 -0.14181209922773708 -0.03101495983702529 0.06368432893333978" config_type=hcp_Mg_geomopti_randshear_pm_0.01_product_symm_k0p012 pbc="T T T"
Mg       0.00000000       0.00000000       0.00000000      -0.01857000      -0.00208000       0.00325000